LAMMPS (23 Jun 2022 - Update 1)
log none
