65
Lattice="11.13112139613603 0.0 0.0 5.56556069806801 10.19730935997138 -3.21327646902957 0.0 0.0 32.13277582141707" Properties=species:S:1:pos:R:3:move_mask:L:1:tags:I:1:forces:R:3 energy=-506.1315801686851 stress="0.01362270416342716 -0.0005008734721245476 -6.409406256627956e-05 -0.0005008734721245476 0.011422953930792519 -0.00020417120251996307 -6.409406256627956e-05 -0.00020417120251996307 0.01005435944835458" pbc="T T T"
Hf       6.49315413       3.82399255      12.85311183  F        0       0.63559692       0.64606928       0.84515480
Hf       3.71037379       3.82399255      11.24647285  F        0       1.00473119      -0.09053189       0.44230530
Hf       4.63796723       1.27466418      12.85311183  F        0       1.74685990       0.17258710      -1.52880860
Hf       1.85518689       1.27466418      11.24647285  F        0      -0.56735566       0.90010816       0.17668745
Hf       6.49315413       3.82399255      16.06638979  F        0       1.69543641      -0.11909283      -1.58097146
Hf       3.71037379       3.82399255      14.45975081  F        0       2.12583262       1.21517100      -2.05181080
Hf       4.63796723       1.27466418      16.06638979  F        0       4.04840151       0.45929783       0.55222803
Hf       1.85518689       1.27466418      14.45975081  F        0      -0.70180230       0.29467315      -2.96527846
Hf       6.95017854       3.29671479      20.44811198  T        1      33.87154129       4.39369637     -24.34958368
Hf       4.06153197       3.91159618      18.18342863  T        1      21.36576870       3.38984885       2.02758869
Hf       4.32013358       1.19469149      19.79910172  T        1     -18.26024717      31.25350186      22.24736614
Hf       1.63238473       1.24586727      17.83728150  T        1      22.09682481       3.50856475     -36.53564642
Hf       9.27593447       8.92264929      11.24647285  F        0       2.01198841      -2.04496617      -2.00227038
Hf       6.49315413       8.92264929       9.63983387  F        0       0.33064913      -1.32423301      -0.98319519
Hf       7.42074758       6.37332092      11.24647285  F        0       0.18160715      -1.35414644      -0.05116315
Hf       4.63796723       6.37332092       9.63983387  F        0      -0.65848599       0.42118624       0.52170113
Hf       9.27593447       8.92264929      14.45975081  F        0       2.77880146      -2.82004337       4.65283501
Hf       6.49315413       8.92264929      12.85311183  F        0      -2.05724900      -3.40035284       0.77509806
Hf       7.42074758       6.37332092      14.45975081  F        0       1.00091978      -2.07573024       0.87784824
Hf       4.63796723       6.37332092      12.85311183  F        0      -0.64931381      -1.12232226       0.08867868
Hf       9.73085032       8.48572509      18.15870604  T        1      -9.61791862      -7.60127563      -6.43497117
Hf       6.80151464       8.83575492      16.49304714  T        1      -0.12642096       3.18482304     -45.16997935
Hf       7.15885378       6.16176611      18.18218989  T        1       0.93497431      10.38866688       2.11356489
Hf       4.38937585       6.24073825      16.16334369  T        1      -1.20188023       7.51692807      23.68919647
Hf      12.05871481       3.82399255      12.85311183  F        0      -0.43522253       0.94271667      -2.03614461
Hf       9.27593447       3.82399255      11.24647285  F        0      -0.00571180      -0.50220777       0.53551577
Hf      10.20352792       1.27466418      12.85311183  F        0      -1.08356557       0.16222646      -1.52599000
Hf       7.42074758       1.27466418      11.24647285  F        0      -0.64197690       1.07430785       0.94598329
Hf      12.05871481       3.82399255      16.06638979  F        0      -1.26793309       0.33042742      -1.30745858
Hf       9.27593447       3.82399255      14.45975081  F        0      -3.65335755       0.43933055       0.94218890
Hf      10.20352792       1.27466418      16.06638979  F        0      -4.30248782       1.42759695       0.26861678
Hf       7.42074758       1.27466418      14.45975081  F        0      -0.22926182       1.70996056       1.00552646
Hf      12.31636807       3.46396747      20.58350173  T        1      34.95357865      16.81489213     -11.36458763
Hf       9.65213970       4.07609446      18.10637912  T        1      32.58058381       2.52573715       7.82063163
Hf       9.90482485       1.01203636      19.84910691  T        1      15.62093557      -9.60850150      12.30841818
Hf       7.24288810       1.42996075      17.70807371  T        1      -0.07302546     -17.06722807      11.56744926
Hf      14.84149515       8.92264929      11.24647285  F        0      -1.43086867      -0.52673351      -0.38236477
Hf      12.05871481       8.92264929       9.63983387  F        0       0.71274898      -0.87802848       0.47228419
Hf      12.98630826       6.37332092      11.24647285  F        0       0.20893327       0.22701396       0.27916656
Hf      10.20352792       6.37332092       9.63983387  F        0      -0.34147277       0.72167436       0.66248684
Hf      14.84149515       8.92264929      14.45975081  F        0      -0.19491013      -1.59715940      -1.13103158
Hf      12.05871481       8.92264929      12.85311183  F        0      -0.17869170      -1.04381776       1.03934998
Hf      12.98630826       6.37332092      14.45975081  F        0      -0.45175392       1.67555347      -2.28497791
Hf      10.20352792       6.37332092      12.85311183  F        0      -0.09666203       0.60636694       0.65649966
Hf      14.94094845       8.19108508      18.60495976  T        1      11.26019725       5.08508646      30.93756296
Hf      12.41150920       9.05105550      16.25034126  T        1       4.22935135      32.06257074      -2.47300492
Hf      12.42101021       6.05298030      18.04579147  T        1       8.79939863      17.09331428     -37.13053941
Hf      10.02214384       6.39350366      15.94666679  T        1       1.58339554     -14.85169737      13.69257193
O        7.20468244       3.05908540      22.18999880  T        1       6.79182761      -7.09668199      -5.05352971
O        4.92824619       3.22623902      19.91241562  T        1       1.30502767       0.75778289       3.06896372
O        4.19766493       0.23233612      21.50730718  T        1      -1.27243058       0.14028353       1.47241336
O        2.59465020       2.55890789      19.26917254  T        1       3.12332177       2.55517246      -2.35859496
O        7.74695366       8.25469341      18.27800875  T        1       4.62502747      -3.27849983       8.73061739
O        7.35982737       5.21851453      19.85595864  T        1      -4.44312661       1.57299962       6.54393985
O        5.49575322       7.42623038      17.64910153  T        1       4.89725459      -2.70737374      -0.98299659
O       13.38325806       4.45099830      21.66155400  T        1      -0.04454051       4.51598196       8.97411857
O        8.64712432       2.59114832      19.18622104  T        1     -10.90450818       2.66793200      -4.30533083
O       10.07370842       1.16213325      21.84403528  T        1      -0.03738272      -1.98622333      -6.76123744
O        6.44893613       0.98376062      19.68390377  T        1      -3.21136778       0.89823143       2.49614780
O       15.38017934       8.56368066      20.29684976  T        1       9.74371287      -3.53475091       0.84067204
O       11.36546732       4.84279113      19.31053443  T        1       5.66192180       2.08364829      -5.01171645
O        9.40109568       6.22659160      18.03269603  T        1       2.03043084       2.62912274       2.09311038
O       10.65014161       2.44462458      21.31001539  T        1       4.93896915      -4.02164113      -2.28070948
O        0.77962917       0.60326707      19.69504846  T        1      -6.83132355       2.76582884       1.57465536
O        3.36178382       5.95923774      18.31262260  T        1      -0.37370867      13.28168169      -7.10271709
65
Lattice="11.13112139613603 0.0 0.0 5.56556069806801 10.19730935997138 -3.21327646902957 0.0 0.0 32.13277582141707" Properties=species:S:1:pos:R:3:move_mask:L:1:tags:I:1:forces:R:3 energy=-506.05529223767917 stress="0.013085609525612767 -0.0008355367282331112 0.0006367368440852671 -0.0008355367282331112 0.012135945482765033 -0.00033472092765770314 0.0006367368440852671 -0.00033472092765770314 0.010345376451651796" pbc="T T T"
Hf       6.49315413       3.82399255      12.85311183  F        0       0.25083051      -1.44140326      -2.41676834
Hf       3.71037379       3.82399255      11.24647285  F        0       0.76500868      -0.37852607      -0.01224559
Hf       4.63796723       1.27466418      12.85311183  F        0       1.56053577       1.02943821      -0.46243996
Hf       1.85518689       1.27466418      11.24647285  F        0      -0.62425201       1.48378358      -1.47157318
Hf       6.49315413       3.82399255      16.06638979  F        0      -1.76989363       4.50087270      -0.62797808
Hf       3.71037379       3.82399255      14.45975081  F        0       0.15808881      -2.39463217       1.48801575
Hf       4.63796723       1.27466418      16.06638979  F        0      -4.10224417      -0.22607330       0.50869512
Hf       1.85518689       1.27466418      14.45975081  F        0       0.82051947       0.36570337       3.13706322
Hf       6.94429547       3.29649482      20.45235780  T        1     -26.84276059      -1.70418893      15.77306488
Hf       4.05789648       3.91184081      18.18360440  T        1     -16.02422425       0.04113001       4.43260334
Hf       4.32287087       1.18824241      19.79536035  T        1      11.73430205     -14.84256209     -18.47964271
Hf       1.62798613       1.24507437      17.84556327  T        1     -11.68881887      -6.71012474      24.69710985
Hf       9.27593447       8.92264929      11.24647285  F        0      -0.29427336      -0.48579218       1.20945968
Hf       6.49315413       8.92264929       9.63983387  F        0       0.12459475      -2.27556961      -1.77641297
Hf       7.42074758       6.37332092      11.24647285  F        0       0.63794490      -1.39806526      -0.04858529
Hf       4.63796723       6.37332092       9.63983387  F        0      -0.87462312       0.33540391       1.79592824
Hf       9.27593447       8.92264929      14.45975081  F        0      -7.28890201       3.43510378      -4.07956062
Hf       6.49315413       8.92264929      12.85311183  F        0       3.33037308       1.24675974       4.77971312
Hf       7.42074758       6.37332092      14.45975081  F        0      -1.18664120       3.57545287      -1.03100169
Hf       4.63796723       6.37332092      12.85311183  F        0       0.89057624       0.55628485      -3.65890436
Hf       9.73288541       8.48771597      18.15863934  T        1       5.65356306       0.20753303       5.92001382
Hf       6.80237248       8.83562151      16.50241382  T        1       2.67265688      -6.60438218      28.94985952
Hf       7.15955846       6.15899951      18.18147979  T        1      -0.78713685      -9.39006237      -1.46253829
Hf       4.39016444       6.23934954      16.15810197  T        1       5.12615356      -5.64774495     -13.46200661
Hf      12.05871481       3.82399255      12.85311183  F        0      -0.70270278       1.79952945      -0.99734279
Hf       9.27593447       3.82399255      11.24647285  F        0       0.11782468      -0.33590868       0.64849274
Hf      10.20352792       1.27466418      12.85311183  F        0      -1.22872004       0.80444003      -0.89196559
Hf       7.42074758       1.27466418      11.24647285  F        0      -0.55086626       1.79968454       1.41438380
Hf      12.05871481       3.82399255      16.06638979  F        0       0.14075622       4.47193658       1.73092678
Hf       9.27593447       3.82399255      14.45975081  F        0       2.38734299       0.19111121      -0.64205751
Hf      10.20352792       1.27466418      16.06638979  F        0       3.15247323      -3.20964672      -1.25162510
Hf       7.42074758       1.27466418      14.45975081  F        0      -0.57908261      -1.98452495      -3.92860610
Hf      12.31057021       3.46139255      20.58604581  T        1     -17.00634773      -6.28675720      10.06703943
Hf       9.64543318       4.07530902      18.10570559  T        1     -21.18967306       7.39956587      -9.31992672
Hf       9.90126394       1.01494613      19.84615294  T        1     -22.23048957       4.92699878     -10.24376830
Hf       7.24255994       1.43303986      17.70512993  T        1      -2.27802936       4.69844688      -5.00913702
Hf      14.84149515       8.92264929      11.24647285  F        0      -1.45822485      -1.10593038       0.66342912
Hf      12.05871481       8.92264929       9.63983387  F        0       0.51148090      -1.11423285       0.17731090
Hf      12.98630826       6.37332092      11.24647285  F        0       0.41606611      -0.07046734      -1.24921053
Hf      10.20352792       6.37332092       9.63983387  F        0      -0.17758807       1.18313292       1.57356082
Hf      14.84149515       8.92264929      14.45975081  F        0      -2.31798833       3.47159960       0.54628826
Hf      12.05871481       8.92264929      12.85311183  F        0       3.77505166       0.46467844      -0.75064278
Hf      12.98630826       6.37332092      14.45975081  F        0      -2.48627673      -1.08769906       0.80869073
Hf      10.20352792       6.37332092      12.85311183  F        0      -0.81823297      -2.61028363      -2.92662255
Hf      14.93908683       8.19133449      18.59999150  T        1      -4.97966710      -4.12168142     -19.96647584
Hf      12.40984715       9.04503595      16.25070428  T        1       2.89281660     -19.81936951      -4.08862418
Hf      12.41951789       6.05065219      18.05256917  T        1      -9.72364029     -18.83961036      24.22832212
Hf      10.02123886       6.39707083      15.94367194  T        1      -0.63637730       4.19413180      -5.66540943
O        7.21981807       3.04154191      22.17817076  T        1       7.70092377      -9.89345786      -8.15196389
O        4.93388740       3.22870483      19.92092820  T        1       4.35289831       1.50089278       5.55873327
O        4.19538581       0.23083288      21.51096434  T        1      -1.00266698      -1.28932435       2.91000829
O        2.59959902       2.56387577      19.26111605  T        1       3.32690136       3.15879395      -5.45537492
O        7.75541265       8.24911743      18.29609195  T        1       4.98610884      -3.43772675      10.88293738
O        7.34911336       5.22401175      19.87047033  T        1      -6.72983991       3.47215743       8.59787417
O        5.50884356       7.42304847      17.64597217  T        1       7.48605981      -2.13379276      -1.70016028
O       13.38166377       4.46206920      21.68454708  T        1      -0.30891833       7.23407594      14.22711820
O        8.62474793       2.59623779      19.17386145  T        1     -13.60653549       1.98222187      -7.39203962
O       10.07452133       1.16193448      21.82920184  T        1      -0.21360134      -1.72660896      -9.24749572
O        6.43778996       0.98753696      19.69084890  T        1      -6.58685380       2.78924017       4.12478772
O       15.40407889       8.55582581      20.30140446  T        1      14.37662511      -4.52577412       3.56826179
O       11.38107291       4.84961909      19.29976542  T        1      10.01073698       5.53719595      -7.58064851
O        9.40563334       6.23157356      18.03849060  T        1       2.86719518       2.84948877       3.63110651
O       10.66431395       2.44186997      21.30355045  T        1       9.03224709      -3.19540237      -3.30120314
O        0.76586237       0.61153861      19.69745677  T        1      -7.56283115       5.10753317       0.95664696
O        3.35996658       5.99116017      18.29800804  T        1      -1.16096431      18.49929476      -8.77929602
65
Lattice="11.13112139613603 0.0 0.0 5.56556069806801 10.19730935997138 -3.21327646902957 0.0 0.0 32.13277582141707" Properties=species:S:1:pos:R:3:move_mask:L:1:tags:I:1:forces:R:3 energy=-505.9460271026601 stress="0.012587477886261104 -0.0014436835259834893 0.0005564727776459997 -0.0014436835259834893 0.011616822522998366 -0.0004845610994165089 0.0005564727776459997 -0.0004845610994165089 0.010055594643113746" pbc="T T T"
Hf       6.49315413       3.82399255      12.85311183  F        0       0.13893846       2.97034613      -2.91930867
Hf       3.71037379       3.82399255      11.24647285  F        0       2.19783679       0.05315148      -1.84259424
Hf       4.63796723       1.27466418      12.85311183  F        0       0.43817843      -2.37793593      -1.25206886
Hf       1.85518689       1.27466418      11.24647285  F        0      -0.16248114       0.18836739       0.41243837
Hf       6.49315413       3.82399255      16.06638979  F        0       0.85481272       1.43835115       2.11379185
Hf       3.71037379       3.82399255      14.45975081  F        0      -1.88630287       2.86374520       1.36393579
Hf       4.63796723       1.27466418      16.06638979  F        0      -2.39905670      -2.35566286       1.14571622
Hf       1.85518689       1.27466418      14.45975081  F        0       1.89688868      -2.50136945       0.50966897
Hf       6.93817078       3.29631005      20.45654709  T        1      10.27006831       2.02732229      -6.39260072
Hf       4.05413643       3.91210252      18.18384826  T        1       4.06735421       0.93719540      -6.08686522
Hf       4.32572650       1.18163179      19.79150907  T        1      -4.86356165       0.82099054       6.62677837
Hf       1.62345170       1.24423893      17.85409024  T        1       2.13237513       4.98983021      -6.13678765
Hf       9.27593447       8.92264929      11.24647285  F        0      -1.86291779       1.23359107       0.64472224
Hf       6.49315413       8.92264929       9.63983387  F        0       2.14010763      -1.13925778       3.36939273
Hf       7.42074758       6.37332092      11.24647285  F        0       0.70269132       0.85596448      -0.42889799
Hf       4.63796723       6.37332092       9.63983387  F        0      -0.38281240       0.22917499      -0.55637404
Hf       9.27593447       8.92264929      14.45975081  F        0       6.55804870       1.43257909       0.08051957
Hf       6.49315413       8.92264929      12.85311183  F        0      -0.37520717      -1.95211622      -5.00898509
Hf       7.42074758       6.37332092      14.45975081  F        0      -0.30082686      -5.12896923       0.41690779
Hf       4.63796723       6.37332092      12.85311183  F        0      -0.78909819      -1.84068498       3.54523384
Hf       9.73499715       8.48971357      18.15863435  T        1      -1.19748111       4.85470422      -3.17482603
Hf       6.80326997       8.83548920      16.51211626  T        1      -4.85893146       6.50130747      -3.08859179
Hf       7.16029957       6.15610706      18.18087683  T        1       5.43631015       2.87925792      -4.43936022
Hf       4.39100987       6.23791868      16.15271200  T        1      -1.81381908       4.23418717      -0.93726376
Hf      12.05871481       3.82399255      12.85311183  F        0      -2.99746218       1.01924011      -0.35146854
Hf       9.27593447       3.82399255      11.24647285  F        0       1.28262876       1.01119889       0.34083860
Hf      10.20352792       1.27466418      12.85311183  F        0      -1.12189784      -0.40041269      -2.11230491
Hf       7.42074758       1.27466418      11.24647285  F        0      -0.86290272       0.15345345       1.01606029
Hf      12.05871481       3.82399255      16.06638979  F        0       1.61212943      -3.51921654      -2.31727099
Hf       9.27593447       3.82399255      14.45975081  F        0      -0.08762920       3.45931788       0.50694671
Hf      10.20352792       1.27466418      16.06638979  F        0      -3.55088146       3.18142721       3.61881932
Hf       7.42074758       1.27466418      14.45975081  F        0       0.84648633      -2.60122815      -0.11966840
Hf      12.30486758       3.45897538      20.58885650  T        1       4.87861889       8.25671597      -3.74655140
Hf       9.63847870       4.07455511      18.10494180  T        1       6.90301299      -6.58384687       6.67641328
Hf       9.89744771       1.01793539      19.84300915  T        1      13.92941290      -0.11736488      -2.42556829
Hf       7.24220865       1.43618338      17.70215021  T        1       1.78820818       1.15499971      -1.13556879
Hf      14.84149515       8.92264929      11.24647285  F        0      -1.35072384       0.74059635      -3.33507970
Hf      12.05871481       8.92264929       9.63983387  F        0       3.07303285       0.54464317       1.33079206
Hf      12.98630826       6.37332092      11.24647285  F        0      -0.77328126       0.32096727      -0.74349223
Hf      10.20352792       6.37332092       9.63983387  F        0      -0.85858805      -1.89008928       1.03699143
Hf      14.84149515       8.92264929      14.45975081  F        0       3.04211240      -4.25909365       3.13209697
Hf      12.05871481       8.92264929      12.85311183  F        0      -4.12900641      -1.72570522      -0.46846342
Hf      12.98630826       6.37332092      14.45975081  F        0       3.58890611       0.44851304      -0.76084533
Hf      10.20352792       6.37332092      12.85311183  F        0      -0.35171711      -0.29437318      -0.18452171
Hf      14.93730715       8.19160572      18.59507713  T        1       3.31548413       9.19197579       9.64799798
Hf      12.40815470       9.03884127      16.25104542  T        1      -2.68048777       5.21325057       3.90535488
Hf      12.41798495       6.04825891      18.05951390  T        1       7.89589444      12.05229990      -7.20529376
Hf      10.02034161       6.40072553      15.94062271  T        1      -3.37696743      -3.15257580      -1.45483378
O        7.23543899       3.02331089      22.16876444  T        1       7.86117791      -8.32700011      -5.57941901
O        4.93823141       3.23104325      19.92860632  T        1       1.52818038       0.84485004       3.63884430
O        4.19313088       0.22972051      21.51426315  T        1      -1.39093807      -0.23539735       1.50348723
O        2.60412477       2.56898254      19.25353719  T        1       2.65028445       2.72108344      -3.44398906
O        7.76319367       8.24380535      18.31376967  T        1       4.81775195      -3.33009238       9.63593221
O        7.33828701       5.23002610      19.88398459  T        1      -4.78729079       2.04057657       7.56961799
O        5.52119324       7.42015238      17.64291916  T        1       6.26565036      -1.91597174      -1.66411551
O       13.37746960       4.47072043      21.70507695  T        1      -0.73620992       5.10059172      10.20022546
O        8.60295494       2.60086515      19.16157874  T        1     -11.76595084       3.53577263      -5.73965950
O       10.07512100       1.16175255      21.81536652  T        1       0.05769517      -2.32841368      -7.68641073
O        6.42708395       0.99083906      19.69723184  T        1      -4.59529857       0.90024787       3.30064057
O       15.42742417       8.54719767      20.30313289  T        1      11.01852783      -3.86277087       0.64696506
O       11.39610333       4.85564618      19.29018442  T        1       6.78788275       1.71028330      -4.67079333
O        9.41031976       6.23607355      18.04407167  T        1       1.96545752       2.60163656       2.65885558
O       10.67806305       2.43943234      21.29722184  T        1       6.23403382      -4.19154880      -2.95224640
O        0.75308438       0.61911397      19.69963988  T        1      -8.28637287       3.26845063       1.60151453
O        3.35828085       6.02253888      18.28349223  T        1      -1.11328510      15.44385517      -8.29373015
65
Lattice="11.13112139613603 0.0 0.0 5.56556069806801 10.19730935997138 -3.21327646902957 0.0 0.0 32.13277582141707" Properties=species:S:1:pos:R:3:move_mask:L:1:tags:I:1:forces:R:3 energy=-505.7511454300384 stress="0.013819344859727679 0.00026028212458718977 0.0003975231225572218 0.00026028212458718977 0.011914082346659728 0.0002619941082682984 0.0003975231225572218 0.0002619941082682984 0.01082457216213035" pbc="T T T"
Hf       6.49315413       3.82399255      12.85311183  F        0       1.52650699       1.90370154       3.75717267
Hf       3.71037379       3.82399255      11.24647285  F        0      -2.50858682      -0.52079025       2.30227726
Hf       4.63796723       1.27466418      12.85311183  F        0      -2.89559293      -2.47126549       0.53129285
Hf       1.85518689       1.27466418      11.24647285  F        0      -1.16801344      -0.84991965       1.57410519
Hf       6.49315413       3.82399255      16.06638979  F        0      -0.57675363       0.71459435      -3.98588682
Hf       3.71037379       3.82399255      14.45975081  F        0      -0.19390368       0.10032507       1.80386516
Hf       4.63796723       1.27466418      16.06638979  F        0      -1.16450905       0.98272472      -1.51053183
Hf       1.85518689       1.27466418      14.45975081  F        0      -4.07322418       0.61407674       1.58421026
Hf       6.93212292       3.29621618      20.46039440  T        1       2.74660447       1.81475236       1.82720045
Hf       4.05044740       3.91239261      18.18412480  T        1      -1.72934944       2.44865930       6.38286571
Hf       4.32854818       1.17509962      19.78777271  T        1      -5.93021029       5.57165068       1.77683170
Hf       1.61895222       1.24342856      17.86251607  T        1      -0.85204794      -1.54476449      -4.51939560
Hf       9.27593447       8.92264929      11.24647285  F        0       0.48393336      -1.14034375      -1.68319745
Hf       6.49315413       8.92264929       9.63983387  F        0      -0.09577511       0.51641133      -2.27126650
Hf       7.42074758       6.37332092      11.24647285  F        0       1.00534481       0.04831772       0.28766192
Hf       4.63796723       6.37332092       9.63983387  F        0       0.62049552       2.54274074       1.36577161
Hf       9.27593447       8.92264929      14.45975081  F        0      -6.48919980      -1.83165307      -0.43508755
Hf       6.49315413       8.92264929      12.85311183  F        0       1.38428831       3.26483133       5.13123474
Hf       7.42074758       6.37332092      14.45975081  F        0       0.38643382       4.10548139      -4.84769339
Hf       4.63796723       6.37332092      12.85311183  F        0       1.12510050       1.23513438      -1.97729270
Hf       9.73710479       8.49168245      18.15865586  T        1       1.45830646      -0.97973424      -0.62588954
Hf       6.80416409       8.83545326      16.52180733  T        1       2.96090363      -0.03305710      -6.40588118
Hf       7.16112732       6.15320066      18.18041478  T        1      -6.70362534      -3.92152845       9.83223028
Hf       4.39187471       6.23653629      16.14736059  T        1      -1.45106108      -2.58942726       4.39269007
Hf      12.05871481       3.82399255      12.85311183  F        0       3.50016943       0.34663194       0.28328723
Hf       9.27593447       3.82399255      11.24647285  F        0       0.06140687       0.06527914      -0.53754812
Hf      10.20352792       1.27466418      12.85311183  F        0       3.69767397      -1.91802724       1.82318406
Hf       7.42074758       1.27466418      11.24647285  F        0       0.81862076      -1.15393603      -1.83077192
Hf      12.05871481       3.82399255      16.06638979  F        0       1.53236088      -1.91427719       1.30523766
Hf       9.27593447       3.82399255      14.45975081  F        0      -0.71391463      -3.90389959       0.58424488
Hf      10.20352792       1.27466418      16.06638979  F        0      10.13623869      -0.65639898      -1.89407728
Hf       7.42074758       1.27466418      14.45975081  F        0      -1.08847001       2.73793768      -0.42868389
Hf      12.29962774       3.45696748      20.59185560  T        1       4.13030195      -8.94137461       1.35197340
Hf       9.63156463       4.07380701      18.10417848  T        1       3.02351250      -1.53291892      -0.09679367
Hf       9.89359635       1.02091802      19.83972302  T        1     -11.13117950       4.30804346       2.37605169
Hf       7.24184975       1.43929535      17.69923288  T        1      -1.65107110      -4.52562880       5.32458160
Hf      14.84149515       8.92264929      11.24647285  F        0       4.15509159      -1.28675556       0.49729809
Hf      12.05871481       8.92264929       9.63983387  F        0      -4.19126756      -2.56454101      -1.69667802
Hf      12.98630826       6.37332092      11.24647285  F        0       0.04331143      -1.40130002       0.22020727
Hf      10.20352792       6.37332092       9.63983387  F        0      -1.33874759       4.83225959       1.11268068
Hf      14.84149515       8.92264929      14.45975081  F        0       2.75170874       1.69346167      -1.38160130
Hf      12.05871481       8.92264929      12.85311183  F        0       0.12126136      -0.07905779      -1.66479917
Hf      12.98630826       6.37332092      14.45975081  F        0      -1.52942801      -3.64118245       1.04366048
Hf      10.20352792       6.37332092      12.85311183  F        0      -2.20387051       1.03158149      -0.98905709
Hf      14.93575920       8.19200215      18.59056697  T        1       0.67380411      -4.18867474      -3.79169319
Hf      12.40643643       9.03275771      16.25137957  T        1       3.14280016       2.93858933      -0.76019769