12
Lattice="5.136475506554316 0.0 0.0 0.0 5.19341333754447 0.0 -0.883442968274303 0.0 5.246159804521277" Properties=species:S:1:pos:R:3:forces:R:3 energy=-111.08588366253844 stress="-0.007422386161272368 -0.0 0.0003029920130158191 -0.0 -0.008315753520861434 -0.0 0.0003029920130158191 -0.0 -0.008800540741686744" free_energy=-10702.146503816806 pbc="T T T"
Hf       0.79296806       2.37891959       3.71379301      -0.07001808      -0.03483151       0.00308918
Hf       3.01834094       4.97562678       4.15544259       0.07001808      -0.03483151      -0.00308918
Hf       3.46006345       2.81449477       1.53236422       0.07001808       0.03483151      -0.00308918
Hf       1.23469006       0.21778759       1.09071465      -0.07001808       0.03483151       0.00308918
O        1.43661056       3.85624494       5.13377423       0.01613599      -0.00420273      -0.02090924
O        2.37469844       1.25953776       2.73546188      -0.01613599      -0.00420273       0.02090924
O        2.81642044       1.33716942       0.11238300      -0.01613599       0.00420273       0.02090924
O        1.87833256       3.93387661       2.51069536       0.01613599       0.00420273      -0.02090924
O        0.04523848       1.71776788       1.81649659       0.01180265      -0.00296422      -0.00803315
O        4.64951503       4.31447506       0.80658229      -0.01180265      -0.00296422       0.00803315
O        4.20779252       3.47564649       3.42966065      -0.01180265       0.00296422       0.00803315
O       -0.39648403       0.87893931       4.43957495       0.01180265       0.00296422      -0.00803315
