128
Lattice="14.2121085805106002 0.0000000000000000 0.0000000000000000 0.0000000000000000 14.2121085805106002 0.0000000000000000 0.0000000000000000 0.0000000000000000 14.2121085805106002" Properties=species:S:1:pos:R:3:forces:R:3 stress="4739.5200950459202431 641.4413973324733433 -333.5767336464682558 641.4413973324733433 4750.0095571128704250 -715.0904288559202087 -333.5767336464682558 -715.0904288559202087 4829.1090560195725629" pbc="T T T" energy=-911.5958055704877552
Hf    0.113482269999999996201722752   14.208134870510599867543533037    0.049020399999999998696953440   -0.658250065487487212578798790    0.517734741022175315450226663    0.396960297925344596237096084
Hf    1.825312269999999958969283398    1.794469150000000068345684667    1.812920730000000091308720584   -0.025152687055754255340822567    0.110969105121514199918664190    0.060987284297825711254503744
Hf   14.185961140510599420849757735    0.006710960000000000189035454    3.466320490000000198449470190    0.142978750586908787134632348   -0.086273930995480613281856108    0.292449888785383305123133368
Hf    1.709510590000000052057771427    1.838432889999999986230250215    5.252931770000000000209183781   -0.005945809240556071406658134   -0.592528055040799639385795672    0.245157515804232950529240043
Hf   14.101160330510600360298667511    0.011354049999999999212563218    7.067073320000000435925358033    0.662311621234409342307003499   -0.386250841881200401850549042    0.442035163261247421306876504
Hf    1.804268399999999994420818439    1.846513889999999991076151673    8.851468929999999346591721405   -0.432668392204472285200722581   -0.210118620951696977172673542    0.065426880949833121636771693
Hf   14.168410610510600022848848312    0.064042600000000005078248932   10.652825269999999235892573779   -0.053306776022755464339297760    0.053864832470726486945977740   -0.293488438968749321134055208
Hf    1.690474889999999952294729155    1.879140629999999978494429342   12.407267429999999208689587249    0.617413649469621850229827942   -0.398827098148710756930768184   -0.221858325081824292457355341
Hf    0.090421699999999993746513383    3.574387939999999819207232576   14.099254490510599424624160747   -0.884178279137123768194328477    0.141924481951046371763780485    0.869045217171429684732686383
Hf    1.835336070000000097124370768    5.290596700000000041086423153    1.801551040000000103447064248   -0.488107751645097787118743327   -0.101657620998750572449687013    0.252897875758899270959290106
Hf   14.164849060510599443318824342    3.499299689999999962708443491    3.635345099999999884943235884    0.225623710876630106936246989    0.174379362291625955583285190   -0.526978560012891006358870527
Hf    1.802423670000000033297737900    5.439236880000000162738160725    5.256039959999999844342255528   -0.266992793355617874517804466   -0.202848105394611094576262644   -0.048398500945222480695839806
Hf    0.070749300000000001076294609    3.521263080000000211811084228    7.106800429999999835217749933   -0.151178408179979295589134836    0.263952216750662105315683448   -0.012610263942033975159695558
Hf    1.727920949999999900015268395    5.291902789999999967562871461    8.956369920000000206528056879   -0.018333636660525551298484004    0.324175429445876517320357380   -0.710914324364205096884461454
Hf   14.125920670510600629654618388    3.627127660000000197726421902   10.696337059999999397064129880    0.170846997015380502871195745   -0.607016632619118867708607468    0.109524151001959765827642457
Hf    1.805550329999999981112068781    5.258474490000000223233200813   12.569014019999999121068867680    0.249730325129728258914951766    0.659443310886895561750975503   -0.879538763990091232436441260
Hf   14.168132050510600095094559947    7.091606259999999828380623512   14.211803020510600958914437797   -0.143258363671051103249709513   -0.372077602213359337479658961    0.329451548498917667906482620
Hf    1.844474450000000098626173894    8.934896849999999446367837663    1.738386750000000091631591204   -0.211915730178231842550928832   -0.053720213098488817093922876   -0.308296869987468136198316415
Hf    0.036415690000000000559055024    7.173622919999999680840119254    3.454299890000000150536152432   -0.140518483306817487665796307   -0.303454702029984424438424639    0.064539877050132254954206701
Hf    1.697960410000000086583327175    8.650739950000000177965375769    5.420992789999999672545527574    0.813112427659524517054023818    1.278778644489091620428666829   -0.678128394528393130258336896
Hf   14.181671930510599821673167753    7.138463579999999808478605701    7.031248859999999822889549250   -0.121942199479893931268748020   -1.241285677034698498033549185    0.775014802779756983852621488
Hf    1.639139329999999894482698437    8.946444180000000301333784591    8.976887939999999233009475574    1.065015606861504648961158637    0.102583452447103082305623900   -1.242145279728638751493008385
Hf    0.154138839999999999186286459    7.216665710000000011348220141   10.655360710000000068475856096   -0.944248930825200005756414612   -0.879744989882733197106290390    0.702980517334509280580334689
Hf    1.713403280000000084015709945    8.867538559999999847605067771   12.498766409999999993374331098    0.780891723697012984928278456    0.030781289279929360813703454    0.020740452771396453157670692
Hf    0.067750539999999997986535050   10.667801989999999179303813435   14.157623620510600304100989888   -0.500556354062919983682888869   -0.273106016843335686061777778    0.858423918967927912504478627
Hf    1.836512829999999985020053828   12.470279659999999211095200735    1.688337390000000048928541219   -0.018015750567511132351761205   -0.386538566428079544134988055    0.652687520717159297412024443
Hf   14.132451130510601089440569922   10.611904340000000601662577537    3.429576509999999966993300404    0.820756185621872136337628945    0.125214468733959666257860022    0.789961687281556912409996585
Hf    1.805523329999999981865244081   12.289980590000000759687281970    5.330471610000000026730049285   -0.224547372106631698551737486    0.487321678861335261245812944   -0.511302056325889875409984597
Hf    0.034069269999999998721484928   10.685440630000000439281393483    7.028585510000000091679339675    0.201757654369481564948785035   -0.275385725729114239079819981    0.429170574271042493119665551
Hf    1.799612509999999998555608727   12.418404040000000421173353971    8.973626259999999632555045537   -0.230812371205438016108502097    0.056473876712603107708154937   -0.404395613355998662097334773
Hf    0.015293650000000000646616094   10.596293760000000006016307452   10.721300629999999998176463123   -0.388379525476805875783270494   -0.024325151831850383432609419    0.359409142681061333224334930
Hf    1.623515959999999980212237460   12.460830030000000334666765411   12.543861429999999757001205580    0.753808813299037816513248345    0.188834770195807938319987329   -1.149116808868915207142435975
Hf    3.557945960000000074074932854   14.147993490510600622656056657    0.012205360000000000167408309    0.073993588939336302212623764    0.409195249756426571163814288   -0.186393300897467056875811409
Hf    5.361921589999999682163434045    1.890665229999999974452862261    1.805504849999999938958694656   -0.296502348677215143979424283   -0.634459619098668214931535658   -0.262689333031117910888241340
Hf    3.520677539999999883235659581    0.047147250000000001657340931    3.652830259999999995557118382    0.076663327319874630116913750   -0.505974011673377965792042232   -0.250317290595358399318826059
Hf    5.277174780000000176016783371    1.787562069999999891933839535    5.241245150000000130319222080    0.620892892829008613553298801   -0.054769211395230540939671471    0.257623692559907357946258344
Hf    3.510161999999999782318127473    0.022273219999999999824114028    7.106877169999999743765783933    0.041399409580363311089712397   -0.159371975536475196655317177   -0.252604098503967533506653353
Hf    5.445281289999999607687186653    1.619080360000000107234541247    8.879803609999999736146492069   -0.622926841726249458375264112    0.698880757593691281925885050   -0.026880348441302753109694024
Hf    3.546358820000000022787389753    0.107464859999999995388009211   10.634636609999999379283508461   -0.105068347741462619904240228   -0.337491909808982415430733681    0.391344971517484985223944705
Hf    5.285049710000000011689280655    1.764518550000000018940227164   12.503686639999999741235114925   -0.079175586671057604504220251    0.393446219256109119832842680   -0.308902508164069833362930240
Hf    3.516328639999999783327666592    3.573236759999999900827560850    0.042927670000000001104822900    0.492405690934390682933496919   -0.078384455239767614198598267   -0.210204107385285415832143485
Hf    5.379149499999999584076704195    5.343740040000000135478330776    1.697619320000000042725218918   -0.492552183811539978641746984   -0.073976854011171655489675913    0.239568251088039640972482403
Hf    3.577260209999999940322368275    3.565020740000000021296955310    3.617943789999999992801349435    0.015330594031284561218342333    0.255941075720972743834380481   -0.321803539563647933441359328
Hf    5.320908280000000267762061412    5.261706320000000047798494052    5.377114330000000386178271583    0.589844675719606637009917449    0.289050167544376068740064056   -0.133701751662095025263710113
Hf    3.527910090000000220555875785    3.514222399999999968400743455    6.948035540000000231941612583    0.039152699391626126501630978    0.179960184313728149829714198    0.871006790188089130566595486
Hf    5.481070220000000325910605170    5.331990890000000149484549183    8.866934540000000808390723250   -0.690989065118026934975148379   -0.208836645784242297407828914   -0.061265058698309782236890442
Hf    3.487352990000000207970742849    3.581891940000000218446984945   10.562260020000000082518454292    0.857248091712715876155925798   -0.097669129217188788150139089    0.488849564182199436412901150
Hf    5.496473299999999895248947723    5.472771769999999591505002172   12.469001990000000645864020044   -1.104898645050155225888488530   -0.375559470758719038396833412   -0.283746633438365147839022029
Hf    3.534015609999999973922513163    7.067285080000000441202701040    0.118514770000000005389928504    0.198500040375013009352755944    0.161412874946938705855714602   -0.449499544577318721483294439
Hf    5.377519379999999848962488613    8.838089650000000574436853640    1.806467009999999984160012900   -0.097285499665761582255285589    0.310234605936508422985298239   -0.173733442666276438615113875
Hf    3.627166030000000152000438902    7.125604469999999857066086406    3.522398630000000085971123553    0.048701721491079368042687037   -0.019565584369476585191449658    0.075036635588610775537965480
Hf    5.398793480000000144514160638    8.901616349999999400210981548    5.366152529999999920562459010    0.030427538630528237761918575   -0.234983690544091627927514310   -0.482409199421225731718720908
Hf    3.650876090000000129265345095    7.008579120000000273194018519    7.079506069999999873232354730   -0.375200413802065035895338951    0.127687204899379957989680179    0.591792335728500096259097063
Hf    5.281601850000000375473518943    8.811159119999999234096321743    8.926376689999999669566932425    0.715065580297594927117188490    0.250449399180437293210843563   -0.217165023376842181157542200
Hf    3.554670059999999853772578717    7.128341719999999881451913097   10.662851910000000543732312508   -0.331714867974085836355158108   -0.276073044524974942071082751    0.203920698676768041845974722
Hf    5.313581939999999725898760516    8.954940179999999472215677088   12.497363670000000368531800632    0.136837555684753503504325067   -0.623712992881590322369333990   -0.340255408150948845946714982
Hf    3.533144409999999790983338244   10.758154040000000861709850142   14.113789210510599758663374814   -0.203087785164453415998053742   -0.408593657696090795106158566    0.483981717065729399873674765
Hf    5.282903680000000434802132077   12.372601259999999712135831942    1.812753030000000098453938335    0.410887455314982441567650540    0.520467335396351593601593777   -0.404165990595621804626347284
Hf    3.623689750000000042717829274   10.621476200000000034151526052    3.416234180000000009158611647   -0.253404872234807454489668999   -0.160733288254357953306339368    1.012661479230136718499011295
Hf    5.468672999999999895237579040   12.402377050000000124896359921    5.405355209999999743786247564   -0.767120448915672104028828926    0.187983555506374189203455671   -0.517508469660632242081987897
Hf    3.642355929999999908375230007   10.691274699999999242550074996    7.059337669999999675951585232   -0.367737004564201275247370404   -0.347329514939334282885852190    0.526915221436348391037540750
Hf    5.367296610000000356421878678   12.473173239999999495353222301    8.905158009999999180195118242    0.057385670691674689480876737   -0.121664250185346323185342499   -0.204519376158311699809289053
Hf    3.557187030000000138585392051   10.643465170000000696859387972   10.651705350000000294130586553   -0.325603015249982363776837246   -0.069851989265350244995289586    0.352501210933315489715056401
Hf    5.301359530000000042093688535   12.343273149999999915849002718   12.437806410000000312265910907    0.426479899123065608890215117    0.496736943260874641570268295   -0.123844528978728912749218694
Hf    7.108466090000000292548065772    0.039856439999999999923563365   14.155129390510600373431771004   -0.281874140838123843355589315   -0.380445706851434473083628518    0.155802436926089665769623593
Hf    8.955977669999999335459506256    1.665568170000000014496777112    1.773688209999999987331875673   -0.377876350132529459369123970    0.773015137199651758415086533   -0.226648356927688532369558061
Hf    7.161875189999999946621755953   14.187976420510599595559142472    3.582719079999999944874389257   -0.379630126342077989232137725    0.047793592514126403969498824   -0.238208177962201506083772529
Hf    8.815641619999999178958205448    1.838800980000000029335183171    5.320275839999999867302449275   -0.015497770164820651173087640   -0.027118766969853540238499789   -0.004130665394080981767110927
Hf    7.100082360000000036848177842    0.014251899999999999638089498    7.023213329999999920971731626    0.235181071469427072084812380    0.260339218296627705750978521    0.161479427979358269862331099
Hf    8.975252129999999439746716234    1.745400419999999952480607135    8.860161050000000315662873618   -0.417891562129343863141173188   -0.173938509938743518512538344    0.136285608550454601095580642
Hf    7.048436979999999962842593959    0.006278910000000000393716171   10.683642799999999439819475811    0.459492330580992147659458169   -0.128373720314819361743019499    0.771680054729985798189773050
Hf    8.857243309999999425485839311    1.876060870000000102564285953   12.508451960000000369177541870    0.261605467694380866561232324   -0.472052155398083428394784278   -0.185301826303711780763450179
Hf    7.042074219999999940000634524    3.676976629999999968134716255   14.134203490510600431662169285    0.525622898108231373370813344   -0.582221590867454841244921226    0.573168600748972356662136463
Hf    8.881763460000000165450728673    5.480675119999999900244347373    1.743193280000000067175847107    0.117163079902753528016567941   -1.188332893490264385860655239   -0.398104875215606002214485670
Hf    7.016009209999999995943653630    3.606139220000000200627710001    3.472032340000000161239768204    0.549710651315610809852785223    0.149812987355186555404884530    0.114895996147381884711080602
Hf    8.792832609999999604610820825    5.224643989999999682538600609    5.383356290000000043960426410    0.174327832578065000657119299    0.069210832107013148251084544   -0.179184426987717415613587946
Hf    7.045262000000000135457867145    3.485300759999999886673549554    7.177747270000000234801973420    0.168511330227536282322375882   -0.205653354538574889565083481   -0.112968728313916022543139661
Hf    8.864599489999999804012986715    5.295050769999999573656168650    8.924496429999999591586856695    0.577543993038048153465524592   -0.196449025757838485750639279   -0.547654107458959593657255027
Hf    7.240563370000000276149876299    3.538103009999999937207348921   10.727129010000000519653440278   -0.782859861220464803288621169   -0.224335063471222728725962270   -0.365925787937577629005403423
Hf    8.889690970000000191930666915    5.276057709999999900674083619   12.409353769999999173023752519    0.311881212836820187472852695    0.255070481341672372632700672    0.264205745711936890174342807
Hf    7.102664700000000053137227951    7.141942710000000360537342203    0.067560099999999997932853546    0.224780726235471794982601068    0.252148081256440281805453196   -0.038193843723991149907703857
Hf    9.002317670000000049412847147    8.887067419999999273727553373    1.711751840000000024488713279   -0.397659412244044663253816907   -0.116900339125884572544222806    0.226765857428219697045079783
Hf    7.145907890000000151076164912    7.023140849999999879571532801    3.516484970000000043199861466   -0.083369556016470836024012669    0.392988555203652722980223189    0.405161593901446015486556007
Hf    8.891773049999999400938577310    9.079783609999999782758095535    5.243003189999999591464074911   -0.178722175607831407218029085   -1.430434190973374874999990425   -0.409929996580845834586170895
Hf    7.230730010000000262948560703    7.100048250000000393811205868    7.147901840000000284192083200   -0.326306214369328495550348634    0.318207518379096832017438601   -0.358864727166783803458116608
Hf    8.888005420000000711411303200    8.786036380000000534096216143    8.922887610000000080390236690    0.071049805512984801070253127    0.561194227922937494135169345    0.210732302482891986628033010
Hf    7.165945540000000058000750869    6.917114259999999958949956635   10.580141700000000426484803029   -0.067696095050223448197357357    1.032093725208254264558149771    0.260886226452923919438831035
Hf    8.801465040000000072950570029    8.770231089999999340989234042   12.436473319999999276319613273    0.609052351454851370604615113    0.306945461588396639740494720   -0.235660932406664858085321157
Hf    7.152634479999999683741407352   10.508886450000000323257154378    0.026045109999999999789155325   -0.068978163220335758643031454    0.562649398177207160642865347    0.124847055326590336554737348
Hf    8.883002749999999281271811924   12.472803730000000754785105528    1.746821640000000064318896875    0.006829761550483740353834072    0.516988509019544517641975290   -0.220066840456700330008743549
Hf    7.158685990000000387567524740   10.771841730000000225686562771    3.543630100000000116011733553   -0.069589463183653346711743382   -0.262155095337249288700576244   -0.155778752879936366326774078
Hf    8.883933649999999460078470293   12.533324569999999553715497314    5.325802930000000046106833906    0.027833300613640712950491718   -0.280166892212054374766694309   -0.000612235092390743529389141
Hf    7.168591830000000442169039161   10.594386500000000594923221797    6.986732270000000077914137364   -0.002059437619490175203074145    0.201167512197657105676995570    1.013662168630243609612762157
Hf    8.778597760000000249647200690   12.461463889999999210544956441    8.916001850000000672480382491    0.225956998615530063601042343   -0.067695196562258558303781797   -0.131112230455727396538634366
Hf    7.173561809999999816511717654   10.701599800000000328736859956   10.780474160000000694026311976   -0.525775203704204052712611883   -0.455522901026870319363126782   -0.583728670743452249247695818
Hf    8.868352910000000477452886116   12.310764369999999345850483223   12.452433510000000538298081665    0.286684202007184418814489391    0.705720703522053294243221444    0.100809636037333893998635403
Hf   10.786461720000000141794771480    0.092063199999999997813482366   14.209507760510600604675346403   -0.650122303428136039116225220   -0.816147039580742195141738193   -0.266665280204630483762429094
Hf   12.403856530000000546465344087    1.829126800000000052648374549    1.690419459999999984844976098    0.488953819262744893148209258    0.254271837963498115176008696    0.305901385998423758216802071
Hf   10.647876610000000852096491144    0.098171560000000004930775788    3.541968699999999969918462739    0.425196734597991399251526445   -0.347782224535086004202355525    0.448099520537197704150855770
Hf   12.518650570000000143977558764    1.800816280000000046968011702    5.364755480000000353868472303   -0.499977132993326967014269258   -0.154837720016735569394938921    0.209982893943902015898572699
Hf   10.635782100000000127693056129   14.140908760510599861959235568    7.147449899999999800570549269    0.320027998148168291159265664   -0.135014809308388272768297611   -0.257325492382329046314737298
Hf   12.293903130000000345489752362    1.732876709999999986777652339    8.826631850000000056866156228    0.473381298863051802605639296    0.396409455712508296265639274   -0.099012499587192923100609221
Hf   10.726173960000000562331479159   14.208116400510601096129903453   10.703090650000000039199221646   -0.239322741569051034016268886   -0.377073317023678022952282163    0.192782018921196729444034190
Hf   12.453419829999999635106178175    1.773888600000000037582026380   12.497460320000000066897882789    0.584215826361824563939251220    0.015344092383714216798473728   -0.259474056406575837030459297
Hf   10.701191910000000362401806342    3.485094689999999939544750305   14.131220360510599931558317621   -0.436331899925225363823244606    0.442628268277782233042216831    0.560864416570867718725423856
Hf   12.373011990000000182021722139    5.243919870000000038601228880    1.931532150000000003231548362    0.401214731306154370749084137   -0.006241769817325715230538208   -0.695678539380728988561486403
Hf   10.720995070000000737309164833    3.563258439999999804825847605    3.683460189999999911947270448   -0.656283507964856571703649024   -0.461458777294749211694835367   -0.386367553222971393811491225
Hf   12.441002720000000181244104169    5.249255100000000062721028371    5.285471809999999770468548377    0.179234270545367446736406691    0.753847615818756477956696926    0.213295311839702961265174963
Hf   10.598543539999999651968209946    3.525941710000000117730678539    7.071183460000000309264578391    0.265860374458201653702360545    0.185407932555040955158176530    0.007723559586246681041288298
Hf   12.468697849999999860415300645    5.274099279999999723145265307    8.953574400000000821364665171    0.022899366272071008943100878    0.608162285135741109698415130   -0.538650772043869019434225720
Hf   10.724940350000000677255229675    3.518298440000000137928282129   10.631946259999999426781869261   -0.486368755628318383266162073   -0.257408092891788176093115226    0.182785914430476481573606407
Hf   12.283786949999999649207893526    5.276317790000000229611032410   12.384755450000000109866959974    0.762144792793815084586128705    0.430048678700275133213182244   -0.045642324810017884106905228
Hf   10.681510989999999594601831632    7.056742540000000118993739306   14.158567300510600972529573482    0.216271597719932290315725254    0.053496351509534079138319385    0.398036464511567877888609246
Hf   12.489629439999999860333446122    8.927542080000000268569237960    1.817993030000000009849259186   -0.845004273593643828732524526   -0.047077063624282169951307253   -0.764231626408660713600795589
Hf   10.578578370000000674622242514    7.089389169999999573690274701    3.401526070000000068205281423    0.302031772640381335204295965    0.227643852302277877042158138    1.212473042121796629189134364
Hf   12.460389449999999200713318714    8.831716939999999738120095572    5.381918019999999636127085978   -0.096214567022039759747187304    0.456819717917912759830301184   -0.885253894145924702385741512
Hf   10.718752390000000573877514398    7.175638199999999855549503991    7.072073139999999646931883035   -0.632087485867820264573424538   -0.614950723899906903646694900   -0.008386133630301982957999662
Hf   12.544186890000000644818101136    8.827736129999999903361640463    8.725661920000000293384800898   -0.263475834538990316691098315    0.608590247238261272677561919    0.551884457002590811391939951
Hf   10.634126390000000483837538923    7.063365379999999582594227832   10.674289809999999434353412653    0.095280657959833675585414881    0.219544621832435060682087169   -0.192672128202333509117138988
Hf   12.385298360000000172931322595    8.879202440000000251529854722   12.498386950000000439331415691    0.074361127298434193111376089    0.180015240234541212815955191   -0.129122802315840057296725263
Hf   10.624132440000000343616193277   10.756806740000000033319338399    0.062634179999999997634496651    0.340025697053311148909671147   -0.358763549364278067077549395   -0.288493441814296258662864147
Hf   12.390797020000000827621988719   12.433467459999999249475877150    1.854134420000000060824163484   -0.001100651641194980157045791    0.155272987831604342146007980   -0.503315868050717041271013841
Hf   10.581625439999999827023202670   10.747374159999999676529114367    3.558680719999999908509380475    0.479240296835235723982293621   -0.091766462810726256993376637   -0.016773578794476055181528196
Hf   12.466244839999999882707015786   12.335467859999999618025867676    5.362202990000000113468558993   -0.277207088030610115936269722    0.415631219824217079672479258   -0.584266184800401933152613765
Hf   10.577761170000000490176716994   10.608482070000000874188117450    6.972585539999999859617219045    0.183186590991219755419905368    0.294359748638850504676156561    0.993395991130303190885797449
Hf   12.467377550000000141494638228   12.255571650000000261115928879    8.951817780000000723816810932    0.379256187303716851833002011    0.765633416937611110952843774   -0.804116783938469081860489496
Hf   10.789906739999999274459696608   10.696941069999999385231603810   10.572912000000000531940713699   -0.711175577183741580711284769   -0.620788059188062790738626973    0.558198315378788834095757920
Hf   12.583435050000000288150658889   12.451478460000000580976120546   12.501135570000000640789039608   -0.369440094574974065011474522   -0.001084887578421150911012205   -0.251567592316732313584282110
128
Lattice="15.3904560459206809 0.0000000000000000 0.0000000000000000 0.0000000000000000 15.3904560459206809 0.0000000000000000 0.0000000000000000 0.0000000000000000 15.3904560459206809" Properties=species:S:1:pos:R:3:forces:R:3 stress="36663.9676126136546372 21762.6436859229179390 -11556.7104946600593394 21762.6436859229179390 62038.1665898417340941 -796.1503466990525339 -11556.7104946600593394 -796.1503466990525339 29044.7542138868411712" pbc="T T T" energy=-704.0725800596701447
Hf   15.277857925920681481102292310   15.192559405920681214752221422   15.062996385920680353365241899    0.567706725567641790064499219    0.236261604510676626045295734    0.991716879769665826671598552
Hf    2.154200589999999859713852857    2.632071180000000065746235123    3.484802479999999924586973066   -8.398352300857762742225531838   -3.983440104141843463025907113   -8.969236775236350212026081863
Hf    0.695913329999999996644532985   15.333106585920681652623898117    3.508879310000000195657321456   -0.714647842415221057343899247    2.805399813753427729068334884   -0.924071660074734957390774071
Hf    2.458479140000000118249090519    0.893726860000000011829968116    5.046091910000000346769866155    0.753365067293762957767455646   -1.537126438882229662041822849    2.866246837793948287753664772
Hf    0.652181349999999993016785993    1.144258860000000099788053376    7.239250359999999773208401166   -2.191437192885416607168735936   -1.465297377620232266437483304   -0.749873010364389580573174499
Hf    2.429371170000000024202790883    1.627482239999999968915744830    9.496494679999999632968865626    1.084876978573060757327084502   -1.780442675135925023610639073    5.681638990365581065589140053
Hf    0.197842770000000001129336624   14.630072095920681363168114331   11.830855950000000120780896395    0.746408719328889525002068694    3.136171626844284077151314705   -0.040406540979137983704561066
Hf    2.312388320000000163645381690    1.232064489999999956637566356   14.024756229999999490587470063    0.216208496143843298398223851   -0.078992205133574300290888459   -0.081259980882245189115486994
Hf   14.860819665920681487136789656    3.909034239999999993386836650    0.174709379999999997457038603    3.300273255560445484491083334   -1.810843858025704689040935591   -0.834592628114307677478223013
Hf    1.124752999999999891755919634    6.133170609999999633998868376    2.012088199999999993394794728    0.807085545510135782265592752   -1.045771796675930342956917229    0.580706715687842267570317745
Hf   14.438651755920680841427383712    4.525571300000000185548287845    5.037577910000000436241407442    8.927004169306412606488265737   -5.481794572894637340709778073   -2.815681908701552327300987599
Hf    2.009391790000000010962821761    6.034359259999999558488070761    4.905871000000000314855697070   -0.337697250503658397136064195    1.248882928318492124830640932    1.457667779772773286595111131
Hf    0.868332609999999949224047668    3.382291270000000071860313255    8.774082059999999572141859971   -3.204172911659064482137182495    4.097351648147902203334069782    0.577739418666108117683677392
Hf    1.543702759999999951645577312    6.350999429999999890128492552   10.384116150000000544650902157    2.627588995533087334877109242   -1.097994254223622956345707280   -0.402036840840768572302721395
Hf   15.348272345920680237441047211    4.014594299999999726935584476   12.160517979999999838014446141    4.882645754520829051159580558    2.522807829815790547911547037   -3.421765100633806788721358316
Hf    1.996169850000000023371171665    5.509464679999999781045971758   13.850913329999999135111465876   -2.488470576641848897025965925   -0.287753966273482042481646204   -2.871882788210476267209969592